    #         X           Y           Z        CHARGE     MIN DIST    ATOMIC VOL
 --------------------------------------------------------------------------------
    1      5.0494      4.4262      7.6607      3.8537      0.4023     28.7229
    2      4.4772      5.2258     27.8442      3.8023      0.3864     28.1399
    3      4.9111      2.6462      8.5778      0.2659      0.0624      3.7136
    4      4.6161      6.9999     26.9150      0.2936      0.0720      3.7905
    5      4.8955      5.4615      7.9816      0.8323      0.2289     29.5259
    6      4.6304      4.1884     27.5297      0.8556      0.2701     30.7503
    7      6.0888      4.2676      7.3543      0.8629      0.2549    186.3242
    8      3.4380      5.3867     28.1499      0.8677      0.2685    186.9148
    9      4.3607      4.1591      6.8520      0.8617      0.2186    400.2242
   10      5.1665      5.4973     28.6510      0.8811      0.2599    401.7335
   11      9.8431      1.8487      9.2447      6.9836      0.8125     75.0599
   12      9.8510      5.8498      9.2402      6.9840      0.8210     65.8576
   13      4.6955     11.5540      9.2499      7.0000      0.8409     77.9338
   14      4.6964      7.7371      9.2435      6.9906      0.8445     53.8370
   15      9.8239      9.6360      9.2692      6.9865      0.8209    126.3449
   16      7.7803      3.8521      9.8336      7.1049      0.8943     21.2124
   17      2.4944      1.8458      9.8462      7.1028      0.8796     27.8756
   18      2.5145      5.8388      9.8748      7.0978      0.8776     24.9324
   19      7.6529     11.5479      9.8812      7.0873      0.8905     32.3845
   20      7.6584      7.7219      9.8827      7.0870      0.8930     29.4034
   21      2.5109      9.6316      9.8756      7.0866      0.8896     33.1250
   22      6.2133      1.9073     10.6649      7.0984      0.8959     15.4243
   23      6.2090      5.7921     10.6277      7.0957      0.8815     15.4175
   24      1.0269      3.8488     10.7728      7.0599      0.8885     15.5798
   25      6.2239      9.6339     10.7827      7.0581      0.8911     15.3615
   26      1.1139      7.7233     10.8358      7.0514      0.8822     14.9606
   27      1.1137     11.5391     10.8477      7.0512      0.8923     14.9138
   28      4.0171      3.8598     11.6875      7.0890      0.8562     15.3111
   29      9.0820      1.9159     11.6913      7.0166      0.8361     14.4916
   30      9.0830      5.7876     11.6875      7.0168      0.8322     14.5299
   31      3.9903     11.5585     11.6964      7.0207      0.8373     14.5154
   32      3.9943      7.7048     11.6924      7.0196      0.8375     14.4900
   33      9.0855      9.6357     11.7111      7.0148      0.8182     14.3985
   34      6.2495      0.0235     12.8683      7.0438      0.8816     14.7305
   35      6.2510      7.6754     12.8639      7.0440      0.8849     14.7990
   36      1.1360      1.9312     12.8778      7.0372      0.8737     14.5121
   37      1.1362      5.7750     12.8773      7.0380      0.8738     14.5283
   38      1.1324      9.6314     12.8952      7.0368      0.8757     14.3784
   39      6.2762      3.8619     12.9523      7.0398      0.8690     14.5291
   40      4.0581      5.7830     13.7843      7.0315      0.8847     14.1100
   41      4.0575      1.9253     13.7788      7.0325      0.8945     14.1173
   42      9.1722      3.8539     13.7820      7.0329      0.8917     14.0915
   43      4.0616      9.6351     13.7756      7.0350      0.8907     14.1560
   44      9.1704     11.5632     13.7840      7.0331      0.8845     14.0851
   45      9.1702      7.7080     13.7812      7.0311      0.8938     14.0516
   46      2.5716      3.8540     14.4482      7.0318      0.8911     14.1137
   47      7.6759      9.6354     14.4438      7.0338      0.8903     14.1713
   48      2.5771     11.5626     14.4486      7.0326      0.8823     14.1306
   49      2.5780      7.7084     14.4477      7.0323      0.8926     14.1245
   50      7.6946      1.9240     14.4641      7.0322      0.8957     14.0714
   51      7.6972      5.7842     14.4671      7.0341      0.8839     14.0702
   52      5.4787      7.7129     15.3243      7.0310      0.8603     14.1894
   53      5.4775     11.5612     15.3264      7.0307      0.8613     14.1934
   54      0.3672      1.9261     15.3289      7.0300      0.8634     14.1560
   55      0.3664      5.7833     15.3289      7.0290      0.8627     14.1548
   56      0.3657      9.6356     15.3372      7.0296      0.8697     14.1507
   57      5.4679      3.8522     15.3438      7.0334      0.8928     14.2144
   58      7.6818      0.0000     16.5621      7.0294      0.8788     14.0967
   59      2.5721      5.7820     16.5621      7.0297      0.8788     14.1008
   60      7.6818      3.8546     16.5621      7.0265      0.8791     13.9799
   61      2.5721      9.6365     16.5621      7.0276      0.8791     14.0883
   62      7.6818      7.7093     16.5621      7.0299      0.8791     14.1016
   63      2.5721      1.9274     16.5621      7.0287      0.8791     14.1052
   64      0.3808      0.0000     17.4543      7.0294      0.8864     13.9618
   65      0.3808      3.8546     17.4543      7.0269      0.8867     13.9469
   66      5.4905      5.7820     17.4543      7.0290      0.8864     13.9509
   67      0.3808      7.7093     17.4543      7.0269      0.8867     13.9412
   68      5.4905      9.6365     17.4543      7.0266      0.8867     13.9473
   69      5.4905      1.9274     17.4543      7.0271      0.8867     13.9388
   70      4.0354      0.0000     18.0471      7.0283      0.8813     13.9618
   71      4.0354      7.7093     18.0471      7.0278      0.8816     13.9388
   72      9.1451      9.6365     18.0471      7.0279      0.8816     13.9404
   73      9.1451      1.9274     18.0471      7.0277      0.8816     13.9364
   74      4.0354      3.8546     18.0471      7.0278      0.8816     13.9372
   75      9.1451      5.7820     18.0471      7.0284      0.8813     13.9549
   76      6.9538      0.0000     18.9397      7.0308      0.8681     14.1173
   77      1.8441      9.6365     18.9397      7.0299      0.8685     14.1024
   78      6.9538      7.7093     18.9397      7.0301      0.8685     14.1201
   79      1.8441      1.9274     18.9397      7.0298      0.8685     14.1036
   80      1.8441      5.7820     18.9397      7.0312      0.8681     14.0295
   81      6.9538      3.8546     18.9397      7.0304      0.8685     14.1121
   82      4.0578      5.7846     20.1577      7.0305      0.8776     14.1947
   83      9.1603      0.0009     20.1644      7.0279      0.8605     14.1395
   84      9.1596      3.8534     20.1727      7.0293      0.8711     14.1527
   85      9.1589      7.7101     20.1726      7.0293      0.8716     14.1499
   86      4.0471      1.9240     20.1774      7.0287      0.8693     14.1753
   87      4.0483      9.6390     20.1751      7.0279      0.8703     14.1624
   88      1.8315      7.7125     21.0382      7.0341      0.8890     14.0859
   89      1.8286      3.8522     21.0351      7.0333      0.8896     14.0629
   90      6.9475      1.9280     21.0535      7.0342      0.8924     14.1523
   91      6.9487      9.6379     21.0529      7.0348      0.8942     14.1604
   92      1.8499      0.0011     21.0574      7.0387      0.8879     14.2156
   93      6.9542      5.7824     21.0528      7.0353      0.8898     14.1576
   94      0.3536      5.7825     21.7206      7.0364      0.8865     14.1556
   95      0.3554      9.6372     21.7180      7.0347      0.8948     14.0867
   96      0.3555      1.9283     21.7210      7.0336      0.8932     14.0786
   97      5.4638      0.0015     21.7251      7.0386      0.8912     14.2096
   98      5.4679      3.8534     21.7179      7.0341      0.8931     14.1169
   99      5.4684      7.7113     21.7229      7.0342      0.8925     14.1471
  100      3.2497      5.7738     22.5490      7.0415      0.8527     14.5416
  101      8.3934      0.0052     22.6064      7.0358      0.8808     14.3792
  102      8.3895      3.8610     22.6241      7.0376      0.8712     14.5234
  103      8.3898      7.7053     22.6235      7.0362      0.8706     14.5109
  104      3.2746      1.9608     22.6385      7.0419      0.8809     14.7869
  105      3.2763      9.6134     22.6339      7.0404      0.8776     14.7176
  106      0.4404      0.0005     23.7909      7.0194      0.8446     14.4247
  107      5.5313      1.9306     23.8096      7.0199      0.8389     14.5053
  108      5.5353      9.6429     23.8054      7.0188      0.8405     14.5041
  109      0.4430      3.8485     23.8143      7.0177      0.8235     14.5403
  110      0.4440      7.7212     23.8101      7.0200      0.8264     14.5133
  111      5.5086      5.7766     23.8135      7.0900      0.8479     15.3103
  112      8.4125      9.6613     24.6538      7.0515      0.8910     14.9751
  113      8.4119      1.9128     24.6659      7.0517      0.8986     15.0202
  114      8.4995      5.7874     24.7280      7.0623      0.8927     15.6040
  115      3.3023      0.0022     24.7201      7.0583      0.8886     15.3957
  116      3.3170      3.8441     24.8748      7.0937      0.8835     15.4247
  117      3.3120      7.7291     24.8351      7.0964      0.8775     15.3647
  118      7.0151      0.0046     25.6272      7.0898      0.8930     33.9328
  119      7.0111      3.7978     25.6257      7.0973      0.8718     24.9425
  120      7.0318      7.7904     25.6542      7.1018      0.8821     27.7576
  121      1.8730      9.6522     25.6217      7.0832      0.9020     33.1435
  122      1.8675      1.9143     25.6197      7.0836      0.9021     29.4066
  123      1.7454      5.7843     25.6676      7.1058      0.8847     21.2696
  124      9.9212      0.0005     26.2328      6.9885      0.8124    123.5923
  125      4.8298      1.8994     26.2588      6.9887      0.8438     57.4305
  126      4.8310      9.6436     26.2525      6.9992      0.8408     74.6103
  127      9.8941      3.7862     26.2615      6.9835      0.8191     65.9297
  128      9.9018      7.7873     26.2567      6.9826      0.8337     74.1618
  129      4.7682      3.5853      8.8278      7.2227      0.7696     16.3095
  130      4.7586      6.0589     26.6717      7.1991      0.7423     16.0113
  131      8.1609      1.9303     10.0566      1.9621      0.8621      9.3671
  132      8.1686      5.7755     10.0494      1.9636      0.8648      9.2293
  133      8.1420      9.6357     10.0912      1.9600      0.8598      9.7273
  134      3.0140     11.5408     10.0930      1.9628      0.8596      9.3489
  135      3.0170      7.7123     10.0894      1.9619      0.8612      9.3606
  136      2.9402      3.8292     10.1068      2.1575      0.8689     10.6564
  137      5.8401     11.5602     10.8159      1.9517      0.8807      7.7990
  138      5.8395      7.7073     10.8049      1.9517      0.8866      7.8320
  139      0.7294      1.9014     10.8341      1.9637      0.8900      7.8163
  140      0.7369      5.7969     10.8331      1.9593      0.8947      7.8042
  141      0.7181      9.6317     10.8537      1.9580      0.8951      7.7599
  142      5.9439      3.8576     10.9462      2.1888      0.9187      9.3397
  143      4.4360      3.8552     13.6498      1.9375      0.9066      7.6596
  144      9.5542      5.7770     13.6672      1.9403      0.9051      7.6205
  145      9.5536      1.9308     13.6697      1.9412      0.9041      7.6310
  146      4.4475      0.0013     13.6690      1.9391      0.9017      7.6153
  147      4.4499      7.7053     13.6656      1.9438      0.9027      7.6535
  148      9.5516      9.6354     13.6855      1.9401      0.8977      7.6120
  149      7.3183      0.0033     14.5623      1.9347      0.9096      7.7031
  150      7.3180      7.7035     14.5602      1.9355      0.9128      7.7156
  151      2.2077      1.9271     14.5653      1.9366      0.9118      7.7281
  152      2.2113      9.6346     14.5670      1.9376      0.9128      7.7317
  153      2.2075      5.7813     14.5681      1.9338      0.9137      7.6858
  154      7.3206      3.8547     14.5985      1.9420      0.9016      7.6427
  155      5.8587      7.7093     17.3044      1.9403      0.8990      7.5782
  156      0.7490      9.6365     17.3044      1.9416      0.9056      7.5552
  157      5.8587      3.8546     17.3044      1.9428      0.9056      7.5403
  158      0.7490      5.7820     17.3044      1.9370      0.9053      7.5387
  159      0.7490      1.9274     17.3044      1.9405      0.8990      7.5649
  160      5.8587      0.0000     17.3044      1.9368      0.9053      7.5419
  161      3.6672      9.6365     18.1970      1.9391      0.9077      7.5629
  162      8.7769      7.7093     18.1970      1.9390      0.9077      7.5564
  163      3.6672      1.9274     18.1970      1.9382      0.9077      7.5589
  164      3.6672      5.7820     18.1970      1.9387      0.9074      7.5089
  165      8.7769      3.8546     18.1970      1.9388      0.9077      7.5560
  166      8.7769      0.0000     18.1970      1.9369      0.9074      7.5202
  167      2.2051      5.7817     20.9033      1.9375      0.8921      7.5975
  168      7.3183      3.8550     20.9333      1.9383      0.9178      7.7144
  169      7.3181      7.7095     20.9360      1.9380      0.9173      7.7132
  170      7.3144      0.0020     20.9344      1.9388      0.9141      7.7172
  171      2.2075      9.6331     20.9394      1.9397      0.9190      7.7240
  172      2.2078      1.9329     20.9415      1.9379      0.9171      7.7164
  173     10.1936      0.0010     21.8162      1.9301      0.9094      7.5194
  174     10.1909      3.8593     21.8346      1.9409      0.8979      7.6193
  175     10.1917      7.7057     21.8318      1.9370      0.8959      7.5963
  176      5.0756      1.9312     21.8362      1.9375      0.8961      7.6044
  177      5.0781      9.6353     21.8327      1.9385      0.8944      7.6064
  178      5.0899      5.7812     21.8513      1.9324      0.9162      7.5899
  179      3.5817      5.7783     24.5550      2.1840      0.9159      9.3123
  180      8.8078      0.0047     24.6479      1.9564      0.8867      7.7369
  181      8.7890      3.8393     24.6682      1.9578      0.8824      7.8034
  182      8.7966      7.7349     24.6668      1.9574      0.8815      7.7845
  183      3.6864      1.9288     24.6975      1.9556      0.9039      7.8610
  184      3.6857      9.6398     24.6861      1.9593      0.8890      7.8727
  185      6.5088      1.9241     25.4124      1.9620      0.8700      9.3518
  186      6.5121      9.6595     25.4086      1.9639      0.8694      9.3203
  187      1.3837      0.0005     25.4110      1.9591      0.8615      9.7490
  188      1.3571      3.8606     25.4527      1.9659      0.8574      9.2321
  189      1.3647      7.7061     25.4450      1.9613      0.8553      9.3908
  190      6.5861      5.8076     25.3938      2.1590      0.8852     10.6636
 --------------------------------------------------------------------------------
    VACUUM CHARGE:               0.0000
    VACUUM VOLUME:               0.0000
    NUMBER OF ELECTRONS:       976.0000
